82
Properties=species:S:1:pos:R:3:forces:R:3:charge:R:1 charge=0 formation_energy=-293.22753051237027 dft_total_energy=-55121.663986374515 smiles="[H:22][C@:10]([C:4](=[O:2])[N:5]([H:11])[C:8]([H:16])([H:17])[H:18])([C:9]([H:19])([H:20])[H:21])[N:6]([H:12])[C:3](=[O:1])[C:7]([H:13])([H:14])[H:15].[H:24][O:23][H:25].[H:27][O:26][H:28].[H:30][O:29][H:31].[H:33][O:32][H:34].[H:36][O:35][H:37].[H:39][O:38][H:40].[H:42][O:41][H:43].[H:45][O:44][H:46].[H:48][O:47][H:49].[H:51][O:50][H:52].[H:54][O:53][H:55].[H:57][O:56][H:58].[H:60][O:59][H:61].[H:63][O:62][H:64].[H:66][O:65][H:67].[H:69][O:68][H:70].[H:72][O:71][H:73].[H:75][O:74][H:76].[H:78][O:77][H:79].[H:81][O:80][H:82]" subset="SPICE Solvated Amino Acids Single Points Dataset v1.1" energy=-293.22753051237027 dipole="-0.0769496038556099 -3.9842798709869385 -1.9423270225524902" pbc="F F F"
O        8.39274025      13.46663666       9.95169926       1.73471177      -2.52258730       1.04875004      -0.71016985
O       11.54413605      10.41200829       8.40378857      -0.45057437      -0.44232112      -1.53300202      -0.64031076
C        9.11095428      12.55182743      10.43212318       1.09991527       3.34431624       1.14726436       0.84520996
C       11.50423050      10.10861874       9.57603359       0.37383419       1.27176082       0.52476364       0.69148183
N       12.68246174       9.88733387      10.23092079      -1.57286692      -0.56750679       0.33397618      -0.58906686
N        9.21658707      11.35000706       9.91587448       1.35173953      -3.26839375      -0.42388037      -0.60279262
C       10.07539558      12.81597614      11.63909721      -1.11260378       1.02090919      -0.66524553      -0.68398356
C       12.84854794       9.77261162      11.66363049      -1.85718918       1.80045605      -0.01773986      -0.23065837
C        9.28210831       8.88832092      10.13590336       0.47789875       0.85347003      -1.24748898      -0.54890847
C       10.11585999      10.18476295      10.29668713      -0.11632375      -0.50506985       2.87475276       0.00468986
H       13.52281094       9.88232803       9.68504906      -0.05992924       0.09311423      -0.55120760       0.39418402
H        8.78840160      11.20188618       9.02358913      -0.05513122       0.26162425      -0.45223165       0.39607003
H       11.08699703      12.53294373      11.47992229       0.89416856      -0.35741028      -0.91402578       0.17293838
H        9.84771347      12.21923351      12.49901772      -0.70153356       0.05551588       0.61511219       0.20359144
H       10.10439110      13.89124680      11.87943172      -0.46585166      -0.68320203       0.07854410       0.20396869
H       12.35931587       8.90945625      12.09722996       0.03652761       0.13965309       0.08075035       0.13580270
H       12.51072979      10.74451828      12.11717033      -0.13435061      -1.23236859       0.04618523       0.11987840
H       13.86497593       9.80772877      11.85774612       1.99099135      -0.43769234       0.35701773       0.13472198
H        8.94414997       8.84529400       9.09099674      -0.28459096      -0.15716504       0.33840394       0.15288171
H        9.94659519       8.03761005      10.25340557      -0.16180409      -0.13772573       0.31080902       0.16268639
H        8.45690918       8.92293072      10.85731506       0.31411770      -0.25313553      -0.33754370       0.19410710
H       10.31010151      10.08282948      11.42947674      -0.23744923       1.27199721      -1.65958214       0.14793168
O       16.14349365      11.64625645      12.63784599      -1.18541777      -0.81931698      -1.53129196      -1.02621758
H       15.89586639      11.83937073      11.65109825       0.65892106      -1.17336035       2.53368974       0.51248217
H       15.97604275      10.65849590      12.80035973       0.70520622       2.52903795      -0.95929950       0.50541741
O       11.60112858       9.17987156      14.34840965      -3.39659119       0.79839206       0.37868851      -0.89485598
H       10.99573994       8.45031452      13.94374657       1.21322358       2.07992768       1.09261143       0.46031672
H       10.97173786       9.94834805      14.71943665       2.05277419      -2.91321111      -1.38380265       0.43358240
O       13.60241985      14.04318523      11.65002346       1.45176089      -0.85312122      -2.93143177      -0.93595517
H       14.47730255      14.51453018      11.61461639      -1.22490299      -0.82840204      -0.02222599       0.48993465
H       13.55987835      13.49335098      10.77909565       0.12139311       1.45396590       2.51634455       0.48654866
O       11.80848026      12.73446465       6.83783484      -1.66114724      -0.54409081      -1.42876685      -0.91675991
H       11.19312286      13.28738880       6.23605251       1.50929320      -1.99639320       1.55344379       0.42284396
H       11.59477615      11.73409367       6.77203655       0.29357588       2.79866290      -0.07676588       0.48121411
O       10.26835251      13.90610027      14.88346100       2.26775169       1.02792990      -1.35444021      -1.07253754
H       11.25212955      13.59725285      14.60860920      -3.29449701       1.54692972       0.87869203       0.52278107
H       10.08046913      14.87703419      14.53030205       0.60950154      -2.98766184       0.78234619       0.51891363
O       16.49235153       8.97978210      12.97371387      -0.73168737      -3.61497593      -0.01495843      -0.85911727
H       16.83565903       8.06292534      12.58359814      -1.43784034       3.10277820       1.46350670       0.43389520
H       15.64850426       8.79315281      13.50486565       2.01384640      -0.09780928      -1.19225609       0.43303290
O       10.39632416       6.83161688      12.90383244       1.92753828      -1.78136730      -0.52435213      -0.87402707
H       11.14810658       6.20438576      13.22519493      -2.22500253       1.73338926      -1.06412852       0.41918120
H       10.28021622       6.62962866      11.93059635       0.33801991       0.10827895       1.82199311       0.47964001
O        6.52800083       7.36969948      11.80006027      -2.45163894       0.78060836      -2.72367620      -0.85946459
H        5.47208786       7.46760798      11.75897694       3.86959052      -0.33921677      -0.14570111       0.41185832
H        6.86461401       7.49791336      10.82454586      -1.46638882      -0.57884264       2.80972815       0.45537171
O       15.50588036       9.77686691       8.04898453      -0.37039363      -2.37198925      -2.01496220      -1.02060747
H       15.26302147      10.17953873       7.15407801       0.40948337      -1.06578934       2.08140635       0.48362148
H       15.31318378       8.72161674       7.97256422      -0.12233909       3.42328787      -0.10922506       0.54788822
O        9.69234562      16.18671799      13.54479980      -0.18398605       0.20786810      -3.22818971      -0.95077932
H        9.05237007      16.19322205      12.73480129       1.82536995      -0.09037036       2.41273761       0.42483208
H       10.63403130      16.09751511      13.11942863      -2.02076483       0.46311736       0.84959352       0.52477998
O       15.48241043      11.48256302       9.96832752      -1.78217840       0.21142438      -2.02483773      -0.98326087
H       15.64977551      10.63804531       9.35950279      -0.62773257       2.32036471       0.84852856       0.56808305
H       14.75049305      12.03731060       9.50020218       2.23080993      -1.95814407       0.95247453       0.40956244
O        6.40642405      14.99441242       9.36219120      -1.76904798      -0.81986505       2.03460479      -0.99044216
H        7.21446943      14.41306305       9.51042080      -1.70492804       0.84288251       0.26825568       0.56245476
H        5.69254875      14.81378460      10.11012077       2.84615874       0.37362656      -2.46344399       0.40447468
O       11.06243515       5.11155605      10.57492447       1.88202560      -4.07695055       1.18586981      -0.87657160
H       10.54328918       4.28903532      10.25048733       1.17135322       2.16297507       0.79834557       0.45688701
H       11.84977055       4.62682676      11.14038372      -2.97857547       1.96389151      -2.20008707       0.43251306
O       12.07918072      16.05110550      12.49080181       2.21133041      -1.10433066      -0.55951190      -0.95517033
H       12.90981197      16.41721344      12.90182209      -1.56901038      -0.65856266      -0.60850966       0.45537242
H       12.36861134      15.17276478      12.04871845      -0.50024283       2.19467020       1.04459274       0.51949519
O        7.55341959      11.13499451       7.38862038      -1.63959706       1.44515431      -0.22934860      -0.89654130
H        7.00575304      11.95604897       7.05783367       1.51729202      -2.53833795       1.59985495       0.47419244
H        7.20155239      10.80628872       8.25131416      -0.14557585       1.03349662      -1.36964488       0.42700160
O       12.81527328      13.22829628      14.13191509       3.31149268      -0.10961331      -1.36772704      -0.97029775
H       13.58539963      12.79215908      14.63533497      -1.85184526       1.10270429      -1.40718305       0.45650566
H       13.22639275      13.59512711      13.23025036      -1.13935804      -1.54410982       2.90487552       0.50623155
O       11.73750496       6.89227057       8.24020386      -3.03763866      -1.23513377      -0.51652169      -0.95811772
H       11.67255783       6.24234200       8.99551868      -0.40886089       0.76569998      -1.20252204       0.51210290
H       10.92855740       6.79344177       7.59404612       2.54284120       0.12526438       2.25819492       0.47345415
O       14.03275967       7.67943621       7.57587433      -1.56794429      -1.42508423      -3.03445268      -1.01329505
H       13.09971714       7.42130709       7.97444582       2.13298750       0.62661600      -1.30079186       0.57530946
H       13.92691517       7.49597740       6.53268290       0.28223598       0.72179574       3.87792683       0.43358725
O        6.55021143       7.45731068       8.60100269      -1.48064291       2.71091294      -1.57417667      -0.84612614
H        6.33220434       8.46057129       8.69807625       0.64999545      -2.76613283      -0.19433111       0.40400660
H        6.13558769       7.27941465       7.70318508       0.83063918       0.11454420       1.74507511       0.44004497
O       11.96839809       9.70221806       5.62972784      -3.50375199      -0.23182952       0.12083573      -0.86989516
H       11.62227631       9.57307816       6.57989979       0.79869789       0.46246919      -1.96619964       0.45474118
H       11.10499573       9.78126621       5.04693460       2.74058986      -0.25306663       1.96306062       0.40203673
82
Properties=species:S:1:pos:R:3:forces:R:3:charge:R:1 charge=0 formation_energy=-294.65708671821073 dft_total_energy=-55123.093542580355 smiles="[H:22][C@:10]([C:4](=[O:2])[N:5]([H:11])[C:8]([H:16])([H:17])[H:18])([C:9]([H:19])([H:20])[H:21])[N:6]([H:12])[C:3](=[O:1])[C:7]([H:13])([H:14])[H:15].[H:24][O:23][H:25].[H:27][O:26][H:28].[H:30][O:29][H:31].[H:33][O:32][H:34].[H:36][O:35][H:37].[H:39][O:38][H:40].[H:42][O:41][H:43].[H:45][O:44][H:46].[H:48][O:47][H:49].[H:51][O:50][H:52].[H:54][O:53][H:55].[H:57][O:56][H:58].[H:60][O:59][H:61].[H:63][O:62][H:64].[H:66][O:65][H:67].[H:69][O:68][H:70].[H:72][O:71][H:73].[H:75][O:74][H:76].[H:78][O:77][H:79].[H:81][O:80][H:82]" subset="SPICE Solvated Amino Acids Single Points Dataset v1.1" energy=-294.65708671821073 dipole="2.894167184829712 -0.5447977781295776 -1.3848999738693237" pbc="F F F"
O        7.54497910       9.57279491      12.49629402       1.70906675      -0.02102267      -0.92466879      -0.67379916
O        9.43469238      10.39587879       8.53446960       2.54908538       1.44239390       0.61137998      -0.70192057
C        8.61850166      10.07165909      12.06675625      -1.25157106       0.67343396       0.72401941       0.80563039
C       10.43004131      10.77426243       9.22699356      -3.43058085      -1.98759913       0.06932932       0.71337527
N       11.25629807      11.71618366       8.86783886       1.06238854       1.39023328      -1.13012648      -0.58157855
N        9.42245483       9.44239235      11.16011524       1.66763461       2.96034026       0.99859858      -0.63885325
C        9.00338840      11.44425297      12.62328529      -3.20142341      -0.58109480      -1.73455930      -0.74169868
C       12.51979637      12.00738716       9.58971310       0.04765864       1.24997699      -1.45304179      -0.21423419
C       11.48517609       8.75093174      10.02069664       0.61312783      -0.62367344       1.33925545      -0.57125580
C       10.67753887       9.96728039      10.51470566      -0.92290509      -0.09742689       0.33858305       0.03988120
H       11.05899620      12.15872192       7.91971397       0.53662723      -0.96195757       1.87815511       0.40763399
H        9.05342579       8.68751526      10.71057034      -1.41188455      -2.36494589      -1.39631331       0.42313963
H        8.69399738      12.23220921      11.89856815       0.74981034      -0.54184353       0.28376690       0.23335209
H       10.00021458      11.43556881      12.84974289       2.42140150       0.67255080       0.78172761       0.21874055
H        8.32705402      11.62340736      13.45727062       0.63686484      -0.10373040       0.18253456       0.20959501
H       12.42109203      12.01257324      10.66808510      -0.25965586       0.11038394      -0.04579423       0.16427417
H       12.82541370      13.04073143       9.24935246      -0.16921461      -1.24019599       0.57872999       0.10751610
H       13.29007816      11.29241753       9.29010487      -0.04357373       0.19318473       0.09841594       0.13002746
H       10.96378422       7.96860790       9.42779636       0.07336976       1.13387394       0.13238633       0.19873473
H       12.45044231       9.02665615       9.58530617      -0.43123770       0.06401386      -0.27858353       0.17980474
H       11.74497509       8.24909592      10.95015335       0.20150577      -0.27263811      -0.00965149       0.14927666
H       11.19352436      10.54533482      11.30834103      -0.06765351      -0.50431257      -0.79098874       0.13275878
O       12.39764977       5.34207821      11.50466442       2.09768534       0.89808142       2.25132370      -0.98208439
H       12.72037220       4.59499311      12.07124805      -0.55871207       0.94989008      -0.91248512       0.49194780
H       12.84097767       6.17310429      11.94194698      -1.18142891      -1.94847000      -0.74586535       0.52984852
O        7.30100393       8.89670277       8.19213009       2.25129628       0.47138983       1.58443189      -1.04775906
H        7.61419535       8.13982105       8.81578541      -0.74553668       2.08226156      -1.49967062       0.50985640
H        7.97330904       9.68515110       8.35820770      -2.15670013      -2.81945896      -0.31058520       0.51150262
O        6.31962347      13.90864944      12.98322392       0.34707373       1.70739770       2.29545927      -0.92806977
H        6.41362524      14.52511692      13.81575203      -0.62346852      -2.40103030      -2.46368623       0.38674441
H        6.15075159      12.97545052      13.27771187      -0.00627041       0.84239936       0.22708909       0.52182710
O        8.61183453      13.46588230       8.42258835       0.35464448       1.47693431      -1.72072697      -0.90336722
H        8.49679375      14.41964531       8.10176468       0.27056792      -2.22351313       0.54211289       0.42504427
H        9.30109978      13.05841446       7.82034540      -1.35163534       0.94901794       1.38011527       0.52119243
O       15.05869007       9.21102333       8.24043083       1.49237287      -1.97017634      -2.15735078      -1.00430453
H       15.83494186       8.76487732       7.70684862      -2.29825544       1.54567146       1.79573750       0.43846068
H       14.28626251       8.65325832       7.89453840       0.72358239       0.34272850       0.46753430       0.53430593
O       13.28573036       7.44635820       7.22903490      -1.89017761      -2.15235305       1.32551122      -1.06245410
H       13.08326721       6.54180717       7.79588175       0.35456765       3.18587828      -1.93825424       0.52678639
H       12.36250305       7.81420946       6.94797754       1.79285979      -1.45588946       1.08097625       0.51929337
O       11.71531868      15.74030399       9.73613834       3.31464362      -0.14494899      -1.74072182      -0.85377413
H       12.71597290      15.64228058       9.99120140      -2.99177551       0.27310765      -0.84925491       0.45354247
H       11.66521740      15.65118599       8.72934151       0.34404939       0.26057097       2.25778437       0.43301859
O        7.35623026       6.91903639      13.72614956       2.28469419      -1.12455177      -2.81418276      -0.87411129
H        7.63689613       7.81168890      13.36748791      -0.77079934      -1.28995574       0.35213804       0.46112064
H        7.78693914       6.24456310      13.03236389      -1.61063159       2.41127515       2.37192011       0.39550236
O        9.92925930      13.00871658      15.39649677      -2.65444160       0.34982008      -1.11482322      -0.91320413
H        9.58049870      13.46169758      14.52458096       1.20512760      -0.84848028       1.94692481       0.50842279
H        9.07571316      12.74341297      15.84750843       1.67749417       0.43466276      -0.76030594       0.39084679
O       10.93330097       8.41090393       6.54856873      -0.00277602       2.68556261       0.10595420      -0.88218033
H       10.26774502       8.86252594       7.17693090       1.41681111      -0.64923501      -1.36052954       0.49927819
H       11.54552555       9.13532925       6.17337227      -2.03224444      -1.38019848       0.92324460       0.42191392
O       16.23090553      11.32839394       9.75778103      -1.08221078       0.33685017      -3.01184106      -0.89972460
H       16.40158081      11.97068405       8.97095585      -0.48285267      -1.88348329       2.24807572       0.39926270
H       15.61401367      10.62059307       9.33891869       1.59945238       1.45505679       0.71622354       0.49631402
O        9.31388474      14.65616703      13.29484844      -3.30249619       1.54987812      -0.15925044      -0.93438023
H        9.22896481      14.79215240      12.28650093       0.40464759      -0.64997846       1.40030515       0.54183656
H        8.37435818      14.95668125      13.63304615       3.03775978      -0.99286348      -1.19628942       0.39187151
O       13.31353188      11.98701763      13.43523502       1.16289544      -3.44835973       0.37742165      -0.80955601
H       13.09199429      11.53861046      14.33791256       0.67035961       1.18114591      -2.66062856       0.42374435
H       13.87658787      11.28700352      12.88335705      -1.86326432       2.27998114       2.16398358       0.39115849
O        9.60074806      14.57734203      10.66213989      -0.53309143      -0.84345335      -2.04216576      -1.09151244
H        9.04569054      14.04231453       9.93183041       2.29648352       1.62633169       2.04700494       0.52421945
H       10.48504734      14.95054722      10.31480885      -2.15992260      -1.05147469       0.54265100       0.54910326
O       13.29018688       7.42713356      13.15082455       2.57829118       1.07838881       1.53067195      -0.91683984
H       13.34910870       7.65798140      14.14662838      -0.25616172      -0.70673656      -2.55830121       0.47971463
H       14.23078632       7.61698198      12.81227684      -2.14854646      -0.28734067       0.84806722       0.45844495
O        9.98188496       6.35695553      11.49342442       2.22345042       1.49472201       3.92705345      -0.97062123
H       10.87145138       5.86965322      11.45218849      -1.67604709       0.67489612       0.05026665       0.53475243
H       10.11665249       6.99798012      12.33532906      -0.66255164      -2.25641346      -3.03767872       0.43353695
O        5.69390535      11.37763023      13.78105354      -0.95690554      -2.93699884      -2.26337457      -0.93222469
H        4.77195215      11.08524132      13.33519840       3.61950874       0.84746552       1.50857818       0.43608442
H        6.43569946      10.67701149      13.44920349      -2.55199718       1.77294564       0.59699786       0.49064940
O       10.21550179      12.86794090       6.36029911       0.62615955      -0.07482436      -4.43162107      -0.94937122
H        9.31565857      12.75355434       5.90360641       1.99011588       0.07672124       0.95098871       0.48773509
H       10.89887714      12.89230251       5.55241823      -2.38618660      -0.08093935       2.78634119       0.46344587
O        8.12613583       6.80588484       9.84183693       1.10179734      -3.11726618      -0.09494432      -0.98027736
H        8.18201637       5.92477179       9.31409836      -0.30211067       2.57809782       1.32251894       0.42097867
H        8.77165318       6.60784960      10.62131882      -1.24367785       0.38236442      -1.77847028       0.54240054
O       12.38182735       5.25009441       8.84859753      -1.59127295      -1.73235941       0.88598150      -0.99268228
H       11.72356701       4.51067019       8.55790806       1.94776368       2.24660134       1.10349321       0.45177773
H       12.40209103       5.31525135       9.87877846      -0.19117956      -0.56634194      -2.54464698       0.54039627
79
Properties=species:S:1:pos:R:3:forces:R:3:charge:R:1 charge=0 formation_energy=-281.32166110877796 dft_total_energy=-54052.04702259845 smiles="[H:12][C:7]([H:13])([H:14])[C:3](=[O:1])[N:6]([H:11])[C:9]([H:18])([H:19])[C:4](=[O:2])[N:5]([H:10])[C:8]([H:15])([H:16])[H:17].[H:21][O:20][H:22].[H:24][O:23][H:25].[H:27][O:26][H:28].[H:30][O:29][H:31].[H:33][O:32][H:34].[H:36][O:35][H:37].[H:39][O:38][H:40].[H:42][O:41][H:43].[H:45][O:44][H:46].[H:48][O:47][H:49].[H:51][O:50][H:52].[H:54][O:53][H:55].[H:57][O:56][H:58].[H:60][O:59][H:61].[H:63][O:62][H:64].[H:66][O:65][H:67].[H:69][O:68][H:70].[H:72][O:71][H:73].[H:75][O:74][H:76].[H:78][O:77][H:79]" subset="SPICE Solvated Amino Acids Single Points Dataset v1.1" energy=-281.32166110877796 dipole="1.413893461227417 3.5896332263946533 -1.3020102977752686" pbc="F F F"
O        7.63011312       9.62301254      12.30585003      -0.08211361       0.26364323      -0.07678335      -0.69690406
O       11.23764706      11.95120907      12.25213146       0.30782661       0.15121625      -0.29170972      -0.67907041
C        8.68861485       9.79266644      11.70938396      -0.28713438      -0.45738345       1.16325843       0.84370691
C       11.32172203      11.70476437      11.03777695      -1.71987414      -0.61021924       2.20603991       0.68179059
N       12.47190571      11.68150139      10.41426945       2.05941176       0.40473747      -0.36140871      -0.57277226
N        8.87978840      10.94403458      11.03543282       1.62756002       0.52434516      -0.55966187      -0.62467152
C        9.75700855       8.72730732      11.79282093      -1.31397808      -0.07338174       0.52453542      -0.71322525
C       12.71210098      11.35531807       8.99628448       0.14101326       1.24355137       1.25763595      -0.19915538
C       10.07759190      11.34232616      10.26079941      -0.66437811      -1.91122448       2.41998243      -0.14875489
H       13.26210976      11.89206028      11.05058193      -0.77274114      -0.17893004      -0.89767396       0.38454142
H        8.07055378      11.52744961      11.00540543      -0.13812618       0.40669024       0.01822598       0.39308766
H        9.36922073       7.93380213      12.50605392       0.70904136       0.92123657      -1.24962926       0.22904821
H       10.67997074       9.15505981      12.09840393       0.81656116       0.32453498       0.61021715       0.18813232
H        9.93987179       8.40487576      10.79010868       0.05490175      -0.91079366      -0.55802596       0.21677068
H       13.75518036      11.51708221       8.78758907       0.32021740      -0.18242311      -0.03371458       0.12558995
H       12.15011597      12.00192070       8.35725975      -0.38986811       0.47308514      -0.31567663       0.11228064
H       12.41582298      10.37115479       8.79629135      -0.15391055      -1.48450947      -0.35165974       0.13533014
H        9.85880470      12.19436073       9.73044777      -0.82366496       1.52799475      -1.82076883       0.14810301
H       10.33697987      10.49521065       9.68819523       0.26998147      -0.51255482      -1.32495582       0.13634039
O        6.14537430      13.23827839      12.93414688       0.67590475       2.64731956       2.96759105      -0.86808842
H        6.88890648      13.94245052      13.22567463      -2.65777493      -2.63553047      -0.48917052       0.43366441
H        5.43934774      13.25050449      13.69660950       2.25414634       0.13377142      -2.33358955       0.45899031
O        6.47165966       6.56233978      12.29084969      -0.35091862       1.80309832      -1.05759597      -0.98162007
H        6.75586891       7.00367641      11.42745113      -0.78737223      -0.83127141       2.09607315       0.42780444
H        5.89760017       7.25838900      12.78479862       1.28744102      -1.56847215      -1.39277816       0.54573739
O        8.21567726      12.32920551       7.41171265       0.65151846       3.52675438      -0.26579997      -0.91240352
H        7.48256874      13.03362370       7.52323341       1.77304780      -2.04516840      -0.43739420       0.43915614
H        9.07319260      12.87668324       7.13182402      -2.87539911      -1.51159406       0.80444962       0.47046965
O       14.07718658      14.94694138      10.35529709       3.88382626      -0.38531902      -0.98647958      -0.87358183
H       14.90239906      14.68835926      10.94607353      -2.42848086       1.01473296      -2.28481317       0.43609941
H       14.42018223      15.11228085       9.40413475      -0.72347140      -0.44199133       2.71056366       0.44944838
O        6.87324762      13.22990227      10.25802612       1.18850541       4.00535297       1.72263205      -0.92007649
H        6.61223125      13.56317329      11.24867630       0.59058720      -1.29400408      -3.30974889       0.49740762
H        7.39782524      14.00109863       9.80323601      -1.61226737      -2.27580643       1.65468073       0.40357530
O        5.46338987       8.54525948      13.62487316      -1.95542479       3.46536040       1.19203854      -0.96167171
H        6.30644321       9.05759048      13.39771652      -1.63375521      -0.49006304       0.19649521       0.53282702
H        4.66224146       9.21816540      13.87168026       3.46395135      -2.48181963      -1.12716854       0.42131364
O       10.51895905       8.11917400       8.20915604       1.25654352       0.92669570      -2.05450916      -0.91469723
H       10.30008984       9.09263802       8.17399120       0.44399381      -1.67957079      -0.57257891       0.47554469
H       11.11635780       7.92799664       7.39165163      -1.80521619       0.94281739       2.26367068       0.43557724
O       13.20494175      12.13704491       5.50595713      -1.83299065       1.17440665      -2.45610762      -0.89058560
H       13.12095451      11.50693703       4.70526600       0.07949053       1.83527195       1.77092695       0.48197871
H       12.82843399      13.05747700       5.22998381       1.36885083      -2.89590001       0.26728889       0.42938101
O       14.35903835       8.48918629       7.29352188      -1.25532055      -2.79884171       1.08475029      -0.98966283
H       14.03736210       8.44561768       8.29216099       0.52833468      -0.39729285      -2.53322959       0.50568354
H       14.23653126       7.56501913       6.83703661       0.29062909       2.86323738       1.74100113       0.46118280
O        5.83544683      10.86856270       9.68356037       0.66499633       2.63745356       1.56846845      -0.90320456
H        5.17915487      11.13219166      10.41528320       1.78000474      -0.60632795      -1.79144311       0.41185275
H        6.55867290      11.64501095       9.71793938      -2.86930966      -2.58323932      -0.06992624       0.49843895
O       12.41615486      14.55572605      12.35437393       1.30873406      -1.24456215      -2.17531085      -1.01155448
H       13.01551533      14.70156097      11.50277138      -2.46627355      -0.61312389       2.73281264       0.51174164
H       12.13140011      13.58479500      12.34672451       0.48234451       1.87825751       0.04881156       0.47864076
O       16.54661560      13.08239937       8.20389175      -1.17329633      -1.63805699      -0.97510552      -0.89365226
H       15.90198040      13.80132771       8.20250511       0.20398287      -0.53525579      -0.26238966       0.38544652
H       16.12522507      12.28712177       7.68757439       0.89530385       1.89207828       1.09526849       0.48152173
O       13.64808083       9.34189987      12.27617359      -0.46540073       1.47401655       2.53483152      -0.98806828
H       13.18829441       9.06975842      13.16687870       1.43471611       1.03014147      -2.83063459       0.47439790
H       13.97518921      10.32506657      12.36229038      -0.90955746      -2.64185786       0.19867872       0.53837115
O       15.33150864      10.81844330       6.56625700      -2.24710941       0.88278669       0.00372532      -1.01305151
H       14.91722584       9.98538685       6.91073895       0.82844383       0.39070466      -0.39898902       0.54324698
H       14.49891949      11.32593250       6.28718948       2.14500356      -0.83251137       0.54776466       0.48692992